1404
Lattice="27.31 0.0 0.0 -4.66965162299154 24.203653726656487 0.0 1.080267969048351 -0.06831314942510343 37.05219262646495" Properties=species:S:1:pos:R:3 i=10 time=5.0 E=-1756.982301105 pbc="T T T"
O        5.15600000       7.38900000       1.22800000
O        5.19400000       4.69100000       1.27900000
V        5.93900000       6.01700000      12.21700000
O        2.90800000       4.72200000       1.44700000
O        2.10800000       4.66700000      11.17000000
C        4.03100000       4.30000000       1.74500000
O       -0.16300000       7.36300000      10.96000000
C        0.99900000       7.79200000      10.61400000
O       -0.15500000       4.72500000      10.98200000
C        1.01200000       4.27200000      10.68000000
O        2.90700000       7.39400000       1.36700000
O        2.09600000       7.35600000      11.13700000
C        4.05700000       7.83700000       1.72500000
V        2.15600000       6.05800000       0.17100000
O        0.61200000       6.02500000       0.85500000
O        4.38100000       6.03400000      11.57000000
O        4.18500000      10.83800000       4.74400000
O        6.38000000       1.41700000       4.74600000
V        6.97000000       0.09100000       6.10300000
O        4.10600000       1.29100000       4.79800000
O        3.27400000       1.30000000       7.52700000
C        5.17300000       1.74600000       4.34700000
O       -1.22100000      10.66700000       7.89900000
C       -0.01500000      10.33400000       8.13800000
O        1.02500000       1.15800000       7.90300000
C        2.16900000       1.65300000       8.12800000
O        1.88300000      10.74200000       4.83500000
O        1.01600000      10.72900000       7.54000000
C        3.03800000      10.40400000       4.38600000
V        1.21700000      12.06000000       6.12900000
O       -0.33100000      12.00700000       5.63500000
O        5.51400000       0.03200000       6.88000000
C        3.01000000       9.34800000       3.32800000
C        4.09200000       8.82000000       2.76900000
C        2.13400000       2.72800000       9.14000000
C        0.98700000       3.29300000       9.61400000
C        5.20800000       2.76200000       3.28300000
C        4.02800000       3.30200000       2.82500000
C       -0.05400000       9.22200000       8.99300000
C        1.05200000       8.74500000       9.56100000
Cl       1.40700000       8.73300000       2.85100000
Cl      -1.15500000       9.43100000       3.25700000
Cl       3.67800000       3.20200000       9.80200000
Cl       6.28300000       2.69100000       8.96900000
Cl      -0.06800000       3.30000000       2.61500000
Cl       2.51900000       2.80000000       3.47600000
Cl       5.16300000       8.66400000       9.47800000
Cl       2.62400000       9.35000000       9.08700000
O       12.00300000       7.39500000       1.24400000
O       12.00900000       4.69500000       1.28500000
V       12.74500000       6.04200000      12.22400000
O        9.73100000       4.72900000       1.42600000
O        8.90900000       4.67100000      11.12100000
C       10.86900000       4.30100000       1.75400000
O        6.70400000       7.33600000      10.96500000
C        7.86700000       7.74100000      10.64800000
O        6.67900000       4.68400000      11.01800000
C        7.82800000       4.26200000      10.64800000
O        9.72700000       7.39400000       1.40800000
O        8.95100000       7.33200000      11.12300000
C       10.88500000       7.80300000       1.72000000
V        8.97600000       6.03700000       0.17500000
O        7.42400000       6.06600000       0.80600000
O       11.21500000       6.00500000      11.58500000
O       10.99100000      10.84500000       4.77300000
O       13.24700000       1.40900000       4.76500000
V       13.79900000       0.08900000       6.08100000
O       10.97700000       1.29100000       4.76100000
O       10.08400000       1.31300000       7.56700000
C       12.05900000       1.72800000       4.32900000
O        5.64000000      10.62300000       7.92800000
C        6.78000000      10.33100000       8.09800000
O        7.82800000       1.16900000       7.88200000
C        8.96800000       1.60600000       8.12500000
O        8.72700000      10.71300000       4.85500000
O        7.84900000      10.72700000       7.51600000
C        9.87000000      10.36500000       4.34800000
V        8.05400000      12.06900000       6.10900000
O        6.45300000      11.99700000       5.64900000
O       12.30300000       0.04500000       6.87200000
C        9.80000000       9.29300000       3.33800000
C       10.93300000       8.85800000       2.78300000
C        8.97700000       2.68000000       9.16400000
C        7.81800000       3.23300000       9.64300000
C       12.03900000       2.79100000       3.28400000
C       10.89500000       3.28700000       2.83000000
C        6.79900000       9.23800000       9.00100000
C        7.88400000       8.77300000       9.56400000
Cl       8.22800000       8.74000000       2.83500000
Cl       5.68300000       9.43900000       3.25300000
Cl      10.52000000       3.22100000       9.77800000
Cl      13.11600000       2.70900000       8.96800000
Cl       6.73900000       3.29500000       2.65800000
Cl       9.34700000       2.77900000       3.47200000
Cl      12.02100000       8.67000000       9.46300000
Cl       9.45600000       9.36200000       9.06600000
O       10.32900000       6.30400000       6.22300000
H        9.34700000       6.28100000       6.16400000
H       10.53800000       5.34300000       6.22800000
O        3.84500000       9.90400000       7.24900000
H        4.27800000       9.02500000       7.17500000
H        3.04500000       9.80500000       6.68400000
O       11.62100000       0.90700000       9.30600000
H       10.88600000       0.55900000       8.80700000
H       12.43500000       0.91500000       8.74700000
O        0.22900000      10.13100000       1.52200000
H       -0.31700000      10.79200000       1.01300000
H        1.10900000      10.50500000       1.68700000
O        5.97200000      10.93000000      10.93800000
H        5.20600000      11.48500000      11.24800000
H        6.62300000      11.71000000      11.01300000
O        1.80500000       1.78300000      11.02900000
H        0.83500000       1.83700000      11.24900000
H        1.89800000       0.93400000      10.54200000
O        8.35800000       4.55600000       7.30000000
H        8.40000000       3.57900000       7.43400000
H        8.79300000       4.70000000       6.45500000
O        5.51608932       7.36622895      13.57873088
O        5.55408932       4.66822895      13.62973088
V        6.29908932       5.99422895      24.56773088
O        3.26808932       4.69922895      13.79773088
O        2.46808932       4.64422895      23.52073088
C        4.39108932       4.27722895      14.09573088
O        0.19708932       7.34022895      23.31073088
C        1.35908932       7.76922895      22.96473088
O        0.20508932       4.70222895      23.33273088
C        1.37208932       4.24922895      23.03073088
O        3.26708932       7.37122895      13.71773088
O        2.45608932       7.33322895      23.48773088
C        4.41708932       7.81422895      14.07573088
V        2.51608932       6.03522895      12.52173088
O        0.97208932       6.00222895      13.20573088
O        4.74108932       6.01122895      23.92073088
O        4.54508932      10.81522895      17.09473088
O        6.74008932       1.39422895      17.09673088
V        7.33008932       0.06822895      18.45373088
O        4.46608932       1.26822895      17.14873088
O        3.63408932       1.27722895      19.87773088
C        5.53308932       1.72322895      16.69773088
O       -0.86091068      10.64422895      20.24973088
C        0.34508932      10.31122895      20.48873088
O        1.38508932       1.13522895      20.25373088
C        2.52908932       1.63022895      20.47873088
O        2.24308932      10.71922895      17.18573088
O        1.37608932      10.70622895      19.89073088
C        3.39808932      10.38122895      16.73673088
V        1.57708932      12.03722895      18.47973088
O        0.02908932      11.98422895      17.98573088
O        5.87408932       0.00922895      19.23073088
C        3.37008932       9.32522895      15.67873088
C        4.45208932       8.79722895      15.11973088
C        2.49408932       2.70522895      21.49073088
C        1.34708932       3.27022895      21.96473088
C        5.56808932       2.73922895      15.63373088
C        4.38808932       3.27922895      15.17573088
C        0.30608932       9.19922895      21.34373088
C        1.41208932       8.72222895      21.91173088
Cl       1.76708932       8.71022895      15.20173088
Cl      -0.79491068       9.40822895      15.60773088
Cl       4.03808932       3.17922895      22.15273088
Cl       6.64308932       2.66822895      21.31973088
Cl       0.29208932       3.27722895      14.96573088
Cl       2.87908932       2.77722895      15.82673088
Cl       5.52308932       8.64122895      21.82873088
Cl       2.98408932       9.32722895      21.43773088
O       12.36308932       7.37222895      13.59473088
O       12.36908932       4.67222895      13.63573088
V       13.10508932       6.01922895      24.57473088
O       10.09108932       4.70622895      13.77673088
O        9.26908932       4.64822895      23.47173088
C       11.22908932       4.27822895      14.10473088
O        7.06408932       7.31322895      23.31573088
C        8.22708932       7.71822895      22.99873088
O        7.03908932       4.66122895      23.36873088
C        8.18808932       4.23922895      22.99873088
O       10.08708932       7.37122895      13.75873088
O        9.31108932       7.30922895      23.47373088
C       11.24508932       7.78022895      14.07073088
V        9.33608932       6.01422895      12.52573088
O        7.78408932       6.04322895      13.15673088
O       11.57508932       5.98222895      23.93573088
O       11.35108932      10.82222895      17.12373088
O       13.60708932       1.38622895      17.11573088
V       14.15908932       0.06622895      18.43173088
O       11.33708932       1.26822895      17.11173088
O       10.44408932       1.29022895      19.91773088
C       12.41908932       1.70522895      16.67973088
O        6.00008932      10.60022895      20.27873088
C        7.14008932      10.30822895      20.44873088
O        8.18808932       1.14622895      20.23273088
C        9.32808932       1.58322895      20.47573088
O        9.08708932      10.69022895      17.20573088
O        8.20908932      10.70422895      19.86673088
C       10.23008932      10.34222895      16.69873088
V        8.41408932      12.04622895      18.45973088
O        6.81308932      11.97422895      17.99973088
O       12.66308932       0.02222895      19.22273088
C       10.16008932       9.27022895      15.68873088
C       11.29308932       8.83522895      15.13373088
C        9.33708932       2.65722895      21.51473088
C        8.17808932       3.21022895      21.99373088
C       12.39908932       2.76822895      15.63473088
C       11.25508932       3.26422895      15.18073088
C        7.15908932       9.21522895      21.35173088
C        8.24408932       8.75022895      21.91473088
Cl       8.58808932       8.71722895      15.18573088
Cl       6.04308932       9.41622895      15.60373088
Cl      10.88008932       3.19822895      22.12873088
Cl      13.47608932       2.68622895      21.31873088
Cl       7.09908932       3.27222895      15.00873088
Cl       9.70708932       2.75622895      15.82273088
Cl      12.38108932       8.64722895      21.81373088
Cl       9.81608932       9.33922895      21.41673088
O       10.68908932       6.28122895      18.57373088
H        9.70708932       6.25822895      18.51473088
H       10.89808932       5.32022895      18.57873088
O        4.20508932       9.88122895      19.59973088
H        4.63808932       9.00222895      19.52573088
H        3.40508932       9.78222895      19.03473088
O       11.98108932       0.88422895      21.65673088
H       11.24608932       0.53622895      21.15773088
H       12.79508932       0.89222895      21.09773088
O        0.58908932      10.10822895      13.87273088
H        0.04308932      10.76922895      13.36373088
H        1.46908932      10.48222895      14.03773088
O        6.33208932      10.90722895      23.28873088
H        5.56608932      11.46222895      23.59873088
H        6.98308932      11.68722895      23.36373088
O        2.16508932       1.76022895      23.37973088
H        1.19508932       1.81422895      23.59973088
H        2.25808932       0.91122895      22.89273088
O        8.71808932       4.53322895      19.65073088
H        8.76008932       3.55622895      19.78473088
H        9.15308932       4.67722895      18.80573088
O        5.87617865       7.34345790      25.92946175
O        5.91417865       4.64545790      25.98046175
V        6.65917865       5.97145790      36.91846175
O        3.62817865       4.67645790      26.14846175
O        2.82817865       4.62145790      35.87146175
C        4.75117865       4.25445790      26.44646175
O        0.55717865       7.31745790      35.66146175
C        1.71917865       7.74645790      35.31546175
O        0.56517865       4.67945790      35.68346175
C        1.73217865       4.22645790      35.38146175
O        3.62717865       7.34845790      26.06846175
O        2.81617865       7.31045790      35.83846175
C        4.77717865       7.79145790      26.42646175
V        2.87617865       6.01245790      24.87246175
O        1.33217865       5.97945790      25.55646175
O        5.10117865       5.98845790      36.27146175
O        4.90517865      10.79245790      29.44546175
O        7.10017865       1.37145790      29.44746175
V        7.69017865       0.04545790      30.80446175
O        4.82617865       1.24545790      29.49946175
O        3.99417865       1.25445790      32.22846175
C        5.89317865       1.70045790      29.04846175
O       -0.50082135      10.62145790      32.60046175
C        0.70517865      10.28845790      32.83946175
O        1.74517865       1.11245790      32.60446175
C        2.88917865       1.60745790      32.82946175
O        2.60317865      10.69645790      29.53646175
O        1.73617865      10.68345790      32.24146175
C        3.75817865      10.35845790      29.08746175
V        1.93717865      12.01445790      30.83046175
O        0.38917865      11.96145790      30.33646175
O        6.23417865      -0.01354210      31.58146175
C        3.73017865       9.30245790      28.02946175
C        4.81217865       8.77445790      27.47046175
C        2.85417865       2.68245790      33.84146175
C        1.70717865       3.24745790      34.31546175
C        5.92817865       2.71645790      27.98446175
C        4.74817865       3.25645790      27.52646175
C        0.66617865       9.17645790      33.69446175
C        1.77217865       8.69945790      34.26246175
Cl       2.12717865       8.68745790      27.55246175
Cl      -0.43482135       9.38545790      27.95846175
Cl       4.39817865       3.15645790      34.50346175
Cl       7.00317865       2.64545790      33.67046175
Cl       0.65217865       3.25445790      27.31646175
Cl       3.23917865       2.75445790      28.17746175
Cl       5.88317865       8.61845790      34.17946175
Cl       3.34417865       9.30445790      33.78846175
O       12.72317865       7.34945790      25.94546175
O       12.72917865       4.64945790      25.98646175
V       13.46517865       5.99645790      36.92546175
O       10.45117865       4.68345790      26.12746175
O        9.62917865       4.62545790      35.82246175
C       11.58917865       4.25545790      26.45546175
O        7.42417865       7.29045790      35.66646175
C        8.58717865       7.69545790      35.34946175
O        7.39917865       4.63845790      35.71946175
C        8.54817865       4.21645790      35.34946175
O       10.44717865       7.34845790      26.10946175
O        9.67117865       7.28645790      35.82446175
C       11.60517865       7.75745790      26.42146175
V        9.69617865       5.99145790      24.87646175
O        8.14417865       6.02045790      25.50746175
O       11.93517865       5.95945790      36.28646175
O       11.71117865      10.79945790      29.47446175
O       13.96717865       1.36345790      29.46646175
V       14.51917865       0.04345790      30.78246175
O       11.69717865       1.24545790      29.46246175
O       10.80417865       1.26745790      32.26846175
C       12.77917865       1.68245790      29.03046175
O        6.36017865      10.57745790      32.62946175
C        7.50017865      10.28545790      32.79946175
O        8.54817865       1.12345790      32.58346175
C        9.68817865       1.56045790      32.82646175
O        9.44717865      10.66745790      29.55646175
O        8.56917865      10.68145790      32.21746175
C       10.59017865      10.31945790      29.04946175
V        8.77417865      12.02345790      30.81046175
O        7.17317865      11.95145790      30.35046175
O       13.02317865      -0.00054210      31.57346175
C       10.52017865       9.24745790      28.03946175
C       11.65317865       8.81245790      27.48446175
C        9.69717865       2.63445790      33.86546175
C        8.53817865       3.18745790      34.34446175
C       12.75917865       2.74545790      27.98546175
C       11.61517865       3.24145790      27.53146175
C        7.51917865       9.19245790      33.70246175
C        8.60417865       8.72745790      34.26546175
Cl       8.94817865       8.69445790      27.53646175
Cl       6.40317865       9.39345790      27.95446175
Cl      11.24017865       3.17545790      34.47946175
Cl      13.83617865       2.66345790      33.66946175
Cl       7.45917865       3.24945790      27.35946175
Cl      10.06717865       2.73345790      28.17346175
Cl      12.74117865       8.62445790      34.16446175
Cl      10.17617865       9.31645790      33.76746175
O       11.04917865       6.25845790      30.92446175
H       10.06717865       6.23545790      30.86546175
H       11.25817865       5.29745790      30.92946175
O        4.56517865       9.85845790      31.95046175
H        4.99817865       8.97945790      31.87646175
H        3.76517865       9.75945790      31.38546175
O       12.34117865       0.86145790      34.00746175
H       11.60617865       0.51345790      33.50846175
H       13.15517865       0.86945790      33.44846175
O        0.94917865      10.08545790      26.22346175
H        0.40317865      10.74645790      25.71446175
H        1.82917865      10.45945790      26.38846175
O        6.69217865      10.88445790      35.63946175
H        5.92617865      11.43945790      35.94946175
H        7.34317865      11.66445790      35.71446175
O        2.52517865       1.73745790      35.73046175
H        1.55517865       1.79145790      35.95046175
H        2.61817865       0.88845790      35.24346175
O        9.07817865       4.51045790      32.00146175
H        9.12017865       3.53345790      32.13546175
H        9.51317865       4.65445790      31.15646175
O        2.82117419      19.49082686       1.22800000
O        2.85917419      16.79282686       1.27900000
V        3.60417419      18.11882686      12.21700000
O        0.57317419      16.82382686       1.44700000
O       -0.22682581      16.76882686      11.17000000
C        1.69617419      16.40182686       1.74500000
O       -2.49782581      19.46482686      10.96000000
C       -1.33582581      19.89382686      10.61400000
O       -2.48982581      16.82682686      10.98200000
C       -1.32282581      16.37382686      10.68000000
O        0.57217419      19.49582686       1.36700000
O       -0.23882581      19.45782686      11.13700000
C        1.72217419      19.93882686       1.72500000
V       -0.17882581      18.15982686       0.17100000
O       -1.72282581      18.12682686       0.85500000
O        2.04617419      18.13582686      11.57000000
O        1.85017419      22.93982686       4.74400000
O        4.04517419      13.51882686       4.74600000
V        4.63517419      12.19282686       6.10300000
O        1.77117419      13.39282686       4.79800000
O        0.93917419      13.40182686       7.52700000
C        2.83817419      13.84782686       4.34700000
O       -3.55582581      22.76882686       7.89900000
C       -2.34982581      22.43582686       8.13800000
O       -1.30982581      13.25982686       7.90300000
C       -0.16582581      13.75482686       8.12800000
O       -0.45182581      22.84382686       4.83500000
O       -1.31882581      22.83082686       7.54000000
C        0.70317419      22.50582686       4.38600000
V       -1.11782581      24.16182686       6.12900000
O       -2.66582581      24.10882686       5.63500000
O        3.17917419      12.13382686       6.88000000
C        0.67517419      21.44982686       3.32800000
C        1.75717419      20.92182686       2.76900000
C       -0.20082581      14.82982686       9.14000000
C       -1.34782581      15.39482686       9.61400000
C        2.87317419      14.86382686       3.28300000
C        1.69317419      15.40382686       2.82500000
C       -2.38882581      21.32382686       8.99300000
C       -1.28282581      20.84682686       9.56100000
Cl      -0.92782581      20.83482686       2.85100000
Cl      -3.48982581      21.53282686       3.25700000
Cl       1.34317419      15.30382686       9.80200000
Cl       3.94817419      14.79282686       8.96900000
Cl      -2.40282581      15.40182686       2.61500000
Cl       0.18417419      14.90182686       3.47600000
Cl       2.82817419      20.76582686       9.47800000
Cl       0.28917419      21.45182686       9.08700000
O        9.66817419      19.49682686       1.24400000
O        9.67417419      16.79682686       1.28500000
V       10.41017419      18.14382686      12.22400000
O        7.39617419      16.83082686       1.42600000
O        6.57417419      16.77282686      11.12100000
C        8.53417419      16.40282686       1.75400000
O        4.36917419      19.43782686      10.96500000
C        5.53217419      19.84282686      10.64800000
O        4.34417419      16.78582686      11.01800000
C        5.49317419      16.36382686      10.64800000
O        7.39217419      19.49582686       1.40800000
O        6.61617419      19.43382686      11.12300000
C        8.55017419      19.90482686       1.72000000
V        6.64117419      18.13882686       0.17500000
O        5.08917419      18.16782686       0.80600000
O        8.88017419      18.10682686      11.58500000
O        8.65617419      22.94682686       4.77300000
O       10.91217419      13.51082686       4.76500000
V       11.46417419      12.19082686       6.08100000
O        8.64217419      13.39282686       4.76100000
O        7.74917419      13.41482686       7.56700000
C        9.72417419      13.82982686       4.32900000
O        3.30517419      22.72482686       7.92800000
C        4.44517419      22.43282686       8.09800000
O        5.49317419      13.27082686       7.88200000
C        6.63317419      13.70782686       8.12500000
O        6.39217419      22.81482686       4.85500000
O        5.51417419      22.82882686       7.51600000
C        7.53517419      22.46682686       4.34800000
V        5.71917419      24.17082686       6.10900000
O        4.11817419      24.09882686       5.64900000
O        9.96817419      12.14682686       6.87200000
C        7.46517419      21.39482686       3.33800000
C        8.59817419      20.95982686       2.78300000
C        6.64217419      14.78182686       9.16400000
C        5.48317419      15.33482686       9.64300000
C        9.70417419      14.89282686       3.28400000
C        8.56017419      15.38882686       2.83000000
C        4.46417419      21.33982686       9.00100000
C        5.54917419      20.87482686       9.56400000
Cl       5.89317419      20.84182686       2.83500000
Cl       3.34817419      21.54082686       3.25300000
Cl       8.18517419      15.32282686       9.77800000
Cl      10.78117419      14.81082686       8.96800000
Cl       4.40417419      15.39682686       2.65800000
Cl       7.01217419      14.88082686       3.47200000
Cl       9.68617419      20.77182686       9.46300000
Cl       7.12117419      21.46382686       9.06600000
O        7.99417419      18.40582686       6.22300000
H        7.01217419      18.38282686       6.16400000
H        8.20317419      17.44482686       6.22800000
O        1.51017419      22.00582686       7.24900000
H        1.94317419      21.12682686       7.17500000
H        0.71017419      21.90682686       6.68400000
O        9.28617419      13.00882686       9.30600000
H        8.55117419      12.66082686       8.80700000
H       10.10017419      13.01682686       8.74700000
O       -2.10582581      22.23282686       1.52200000
H       -2.65182581      22.89382686       1.01300000
H       -1.22582581      22.60682686       1.68700000
O        3.63717419      23.03182686      10.93800000
H        2.87117419      23.58682686      11.24800000
H        4.28817419      23.81182686      11.01300000
O       -0.52982581      13.88482686      11.02900000
H       -1.49982581      13.93882686      11.24900000
H       -0.43682581      13.03582686      10.54200000
O        6.02317419      16.65782686       7.30000000
H        6.06517419      15.68082686       7.43400000
H        6.45817419      16.80182686       6.45500000
O        3.18126351      19.46805581      13.57873088
O        3.21926351      16.77005581      13.62973088
V        3.96426351      18.09605581      24.56773088
O        0.93326351      16.80105581      13.79773088
O        0.13326351      16.74605581      23.52073088
C        2.05626351      16.37905581      14.09573088
O       -2.13773649      19.44205581      23.31073088
C       -0.97573649      19.87105581      22.96473088
O       -2.12973649      16.80405581      23.33273088
C       -0.96273649      16.35105581      23.03073088
O        0.93226351      19.47305581      13.71773088
O        0.12126351      19.43505581      23.48773088
C        2.08226351      19.91605581      14.07573088
V        0.18126351      18.13705581      12.52173088
O       -1.36273649      18.10405581      13.20573088
O        2.40626351      18.11305581      23.92073088
O        2.21026351      22.91705581      17.09473088
O        4.40526351      13.49605581      17.09673088
V        4.99526351      12.17005581      18.45373088
O        2.13126351      13.37005581      17.14873088
O        1.29926351      13.37905581      19.87773088
C        3.19826351      13.82505581      16.69773088
O       -3.19573649      22.74605581      20.24973088
C       -1.98973649      22.41305581      20.48873088
O       -0.94973649      13.23705581      20.25373088
C        0.19426351      13.73205581      20.47873088
O       -0.09173649      22.82105581      17.18573088
O       -0.95873649      22.80805581      19.89073088
C        1.06326351      22.48305581      16.73673088
V       -0.75773649      24.13905581      18.47973088
O       -2.30573649      24.08605581      17.98573088
O        3.53926351      12.11105581      19.23073088
C        1.03526351      21.42705581      15.67873088
C        2.11726351      20.89905581      15.11973088
C        0.15926351      14.80705581      21.49073088
C       -0.98773649      15.37205581      21.96473088
C        3.23326351      14.84105581      15.63373088
C        2.05326351      15.38105581      15.17573088
C       -2.02873649      21.30105581      21.34373088
C       -0.92273649      20.82405581      21.91173088
Cl      -0.56773649      20.81205581      15.20173088
Cl      -3.12973649      21.51005581      15.60773088
Cl       1.70326351      15.28105581      22.15273088
Cl       4.30826351      14.77005581      21.31973088
Cl      -2.04273649      15.37905581      14.96573088
Cl       0.54426351      14.87905581      15.82673088
Cl       3.18826351      20.74305581      21.82873088
Cl       0.64926351      21.42905581      21.43773088
O       10.02826351      19.47405581      13.59473088
O       10.03426351      16.77405581      13.63573088
V       10.77026351      18.12105581      24.57473088
O        7.75626351      16.80805581      13.77673088
O        6.93426351      16.75005581      23.47173088
C        8.89426351      16.38005581      14.10473088
O        4.72926351      19.41505581      23.31573088
C        5.89226351      19.82005581      22.99873088
O        4.70426351      16.76305581      23.36873088
C        5.85326351      16.34105581      22.99873088
O        7.75226351      19.47305581      13.75873088
O        6.97626351      19.41105581      23.47373088
C        8.91026351      19.88205581      14.07073088
V        7.00126351      18.11605581      12.52573088
O        5.44926351      18.14505581      13.15673088
O        9.24026351      18.08405581      23.93573088
O        9.01626351      22.92405581      17.12373088
O       11.27226351      13.48805581      17.11573088
V       11.82426351      12.16805581      18.43173088
O        9.00226351      13.37005581      17.11173088
O        8.10926351      13.39205581      19.91773088
C       10.08426351      13.80705581      16.67973088
O        3.66526351      22.70205581      20.27873088
C        4.80526351      22.41005581      20.44873088
O        5.85326351      13.24805581      20.23273088
C        6.99326351      13.68505581      20.47573088
O        6.75226351      22.79205581      17.20573088
O        5.87426351      22.80605581      19.86673088
C        7.89526351      22.44405581      16.69873088
V        6.07926351      24.14805581      18.45973088
O        4.47826351      24.07605581      17.99973088
O       10.32826351      12.12405581      19.22273088
C        7.82526351      21.37205581      15.68873088
C        8.95826351      20.93705581      15.13373088
C        7.00226351      14.75905581      21.51473088